[
  {
    "id": "T01.01",
    "name": "Periodic Table and Periodicity",
    "concepts": [
      {
        "concept_id": "T01.01.C01",
        "concept_name": "Modern Periodic Law and Table structure",
        "difficulty_levels": ["familiarity", "application", "exam_style"]
      },
      {
        "concept_id": "T01.01.C02",
        "concept_name": "Periods and groups in the Periodic Table",
        "difficulty_levels": ["familiarity", "application", "exam_style"]
      },
      {
        "concept_id": "T01.01.C03",
        "concept_name": "Periodic trends: atomic radius, ionization energy",
        "difficulty_levels": ["familiarity", "application", "exam_style"]
      },
      {
        "concept_id": "T01.01.C04",
        "concept_name": "Electronegativity and metallic character",
        "difficulty_levels": ["familiarity", "application", "exam_style"]
      },
      {
        "concept_id": "T01.01.C05",
        "concept_name": "Position of elements based on electronic configuration",
        "difficulty_levels": ["familiarity", "application", "exam_style"]
      }
    ],
    "boundaries": {
      "in_scope": [
        "Modern Periodic Law: properties are periodic function of atomic number",
        "Long form of Periodic Table: 18 groups, 7 periods",
        "s-block, p-block, d-block, and f-block elements",
        "Periods: horizontal rows (1-7)",
        "Groups: vertical columns (1-18)",
        "Alkali metals, alkaline earth metals, halogens, noble gases",
        "Transition elements: d-block",
        "Atomic radius: decreases across period, increases down group",
        "Ionization energy: increases across period, decreases down group",
        "Electronegativity: Pauling scale, trends",
        "Metallic character: decreases across period, increases down group",
        "Predicting position from electronic configuration",
        "Predicting properties from position"
      ],
      "out_of_scope": [
        "Basic periodic table introduction only — Covered in Class 8-9",
        "Quantum numbers and orbital concepts — Higher classes",
        "Detailed study of lanthanides and actinides — Higher classes"
      ]
    }
  },
  {
    "id": "T02.01",
    "name": "Chemical Bonding",
    "concepts": [
      {
        "concept_id": "T02.01.C01",
        "concept_name": "Electrovalent (ionic) bonding",
        "difficulty_levels": ["familiarity", "application", "exam_style"]
      },
      {
        "concept_id": "T02.01.C02",
        "concept_name": "Covalent bonding: single, double, triple bonds",
        "difficulty_levels": ["familiarity", "application", "exam_style"]
      },
      {
        "concept_id": "T02.01.C03",
        "concept_name": "Coordinate (dative) bonding",
        "difficulty_levels": ["familiarity", "application", "exam_style"]
      },
      {
        "concept_id": "T02.01.C04",
        "concept_name": "Properties of ionic and covalent compounds",
        "difficulty_levels": ["familiarity", "application", "exam_style"]
      },
      {
        "concept_id": "T02.01.C05",
        "concept_name": "Electron dot structures and Lewis diagrams",
        "difficulty_levels": ["familiarity", "application", "exam_style"]
      }
    ],
    "boundaries": {
      "in_scope": [
        "Octet rule and duplet rule",
        "Electrovalent bond: transfer of electrons",
        "Formation of cations and anions",
        "Electrovalency: number of electrons transferred",
        "Covalent bond: sharing of electrons",
        "Single bond: one shared pair",
        "Double bond: two shared pairs",
        "Triple bond: three shared pairs",
        "Polar and non-polar covalent bonds",
        "Coordinate bond: both electrons from one atom",
        "Examples: H3O+, NH4+, CO, O3",
        "Lewis dot structures for molecules",
        "Properties: melting point, boiling point, solubility, conductivity",
        "Comparison of ionic and covalent compounds"
      ],
      "out_of_scope": [
        "Basic bonding concepts only — Covered in Class 8-9",
        "VSEPR theory and molecular geometry — Higher classes",
        "Hybridization — Higher classes",
        "Metallic bonding details — Higher classes"
      ]
    }
  },
  {
    "id": "T03.01",
    "name": "Acids, Bases, and Salts",
    "concepts": [
      {
        "concept_id": "T03.01.C01",
        "concept_name": "Arrhenius and Bronsted-Lowry definitions",
        "difficulty_levels": ["familiarity", "application", "exam_style"]
      },
      {
        "concept_id": "T03.01.C02",
        "concept_name": "Strong and weak acids and bases",
        "difficulty_levels": ["familiarity", "application", "exam_style"]
      },
      {
        "concept_id": "T03.01.C03",
        "concept_name": "pH scale and indicators",
        "difficulty_levels": ["familiarity", "application", "exam_style"]
      },
      {
        "concept_id": "T03.01.C04",
        "concept_name": "Neutralization and salt formation",
        "difficulty_levels": ["familiarity", "application", "exam_style"]
      },
      {
        "concept_id": "T03.01.C05",
        "concept_name": "Types of salts and their properties",
        "difficulty_levels": ["familiarity", "application", "exam_style"]
      },
      {
        "concept_id": "T03.01.C06",
        "concept_name": "Action of acids on metals and bases",
        "difficulty_levels": ["familiarity", "application", "exam_style"]
      }
    ],
    "boundaries": {
      "in_scope": [
        "Arrhenius theory: acids give H+, bases give OH-",
        "Bronsted-Lowry: acids are proton donors, bases are proton acceptors",
        "Conjugate acid-base pairs",
        "Strong acids: HCl, HNO3, H2SO4 (completely ionized)",
        "Weak acids: CH3COOH, H2CO3 (partially ionized)",
        "Strong bases: NaOH, KOH; Weak bases: NH4OH",
        "pH scale: 0-14, pH = -log[H+]",
        "Indicators: litmus, phenolphthalein, methyl orange, universal",
        "Neutralization: acid + base = salt + water",
        "Normal salts, acidic salts, basic salts",
        "Hydrolysis of salts",
        "Action of dilute acids on metals, metal oxides, carbonates",
        "Basicity of acids: mono, di, tribasic"
      ],
      "out_of_scope": [
        "Basic acid-base concepts only — Covered in Class 8-9",
        "Lewis acid-base theory — Higher classes",
        "Buffer solutions — Higher classes",
        "Ionic equilibrium calculations — Higher classes"
      ]
    }
  },
  {
    "id": "T04.01",
    "name": "Analytical Chemistry",
    "concepts": [
      {
        "concept_id": "T04.01.C01",
        "concept_name": "Identification of cations by dry tests",
        "difficulty_levels": ["familiarity", "application", "exam_style"]
      },
      {
        "concept_id": "T04.01.C02",
        "concept_name": "Identification of cations by wet tests",
        "difficulty_levels": ["familiarity", "application", "exam_style"]
      },
      {
        "concept_id": "T04.01.C03",
        "concept_name": "Identification of anions",
        "difficulty_levels": ["familiarity", "application", "exam_style"]
      },
      {
        "concept_id": "T04.01.C04",
        "concept_name": "Action of NaOH and NH4OH on salt solutions",
        "difficulty_levels": ["familiarity", "application", "exam_style"]
      },
      {
        "concept_id": "T04.01.C05",
        "concept_name": "Confirmatory tests for ions",
        "difficulty_levels": ["familiarity", "application", "exam_style"]
      }
    ],
    "boundaries": {
      "in_scope": [
        "Flame tests: Na (golden yellow), K (lilac), Ca (brick red), Cu (green)",
        "Borax bead test for colored cations",
        "Action of dilute HCl and H2SO4 on salts",
        "Carbonate test: effervescence with acid, lime water turns milky",
        "Sulphate test: BaCl2 gives white precipitate",
        "Chloride test: AgNO3 gives white curdy precipitate",
        "Action of NaOH on cations: precipitate colors",
        "Action of NH4OH on cations: precipitate behavior",
        "Solubility in excess NaOH and NH4OH",
        "Tests for NH4+, Cu2+, Fe2+, Fe3+, Zn2+, Pb2+, Al3+",
        "Tests for CO32-, SO42-, Cl-, NO3-"
      ],
      "out_of_scope": [
        "Basic salt identification only — Covered in Class 8-9",
        "Systematic qualitative analysis — Practical focus",
        "Quantitative analysis — Higher classes",
        "Instrumental analysis — Higher classes"
      ]
    }
  },
  {
    "id": "T05.01",
    "name": "Mole Concept and Stoichiometry",
    "concepts": [
      {
        "concept_id": "T05.01.C01",
        "concept_name": "Mole concept and Avogadro's number",
        "difficulty_levels": ["familiarity", "application", "exam_style"]
      },
      {
        "concept_id": "T05.01.C02",
        "concept_name": "Molar mass and gram atomic/molecular mass",
        "difficulty_levels": ["familiarity", "application", "exam_style"]
      },
      {
        "concept_id": "T05.01.C03",
        "concept_name": "Molar volume of gases at STP",
        "difficulty_levels": ["familiarity", "application", "exam_style"]
      },
      {
        "concept_id": "T05.01.C04",
        "concept_name": "Stoichiometric calculations from equations",
        "difficulty_levels": ["familiarity", "application", "exam_style"]
      },
      {
        "concept_id": "T05.01.C05",
        "concept_name": "Percentage composition and empirical formula",
        "difficulty_levels": ["familiarity", "application", "exam_style"]
      }
    ],
    "boundaries": {
      "in_scope": [
        "Mole: amount containing 6.022 x 10^23 particles",
        "Avogadro's number: 6.022 x 10^23",
        "Relative atomic mass and relative molecular mass",
        "Gram atomic mass = atomic mass in grams",
        "Gram molecular mass = molecular mass in grams",
        "Molar volume at STP: 22.4 L",
        "Relationship: mass, moles, molecules, volume",
        "Calculations: mass to moles, moles to molecules",
        "Calculations: volume of gas at STP",
        "Stoichiometry: mole ratios from balanced equations",
        "Mass-mass, mass-volume, volume-volume calculations",
        "Percentage composition from formula",
        "Empirical formula from percentage composition",
        "Molecular formula from empirical formula"
      ],
      "out_of_scope": [
        "Basic formula concepts only — Covered in Class 8-9",
        "Limiting reagent problems — Higher classes",
        "Concentration calculations (molarity, normality) — Higher classes"
      ]
    }
  },
  {
    "id": "T06.01",
    "name": "Electrolysis",
    "concepts": [
      {
        "concept_id": "T06.01.C01",
        "concept_name": "Electrolytes and non-electrolytes",
        "difficulty_levels": ["familiarity", "application", "exam_style"]
      },
      {
        "concept_id": "T06.01.C02",
        "concept_name": "Mechanism of electrolysis",
        "difficulty_levels": ["familiarity", "application", "exam_style"]
      },
      {
        "concept_id": "T06.01.C03",
        "concept_name": "Electrolysis of specific compounds",
        "difficulty_levels": ["familiarity", "application", "exam_style"]
      },
      {
        "concept_id": "T06.01.C04",
        "concept_name": "Electroplating and electrorefining",
        "difficulty_levels": ["familiarity", "application", "exam_style"]
      },
      {
        "concept_id": "T06.01.C05",
        "concept_name": "Applications of electrolysis",
        "difficulty_levels": ["familiarity", "application", "exam_style"]
      }
    ],
    "boundaries": {
      "in_scope": [
        "Electrolyte: conducts electricity in molten/aqueous state",
        "Non-electrolyte: does not conduct electricity",
        "Strong electrolytes: completely ionized",
        "Weak electrolytes: partially ionized",
        "Electrodes: anode (positive), cathode (negative)",
        "Migration of ions during electrolysis",
        "Oxidation at anode, reduction at cathode",
        "Electrolysis of molten PbBr2, NaCl",
        "Electrolysis of acidified water",
        "Electrolysis of CuSO4 with different electrodes",
        "Electrolysis of brine (NaCl solution)",
        "Electroplating: principle and applications",
        "Electrorefining of copper",
        "Extraction of reactive metals by electrolysis"
      ],
      "out_of_scope": [
        "Basic electrolysis concept only — Covered in Class 8-9",
        "Faraday's laws of electrolysis (quantitative) — Higher classes",
        "Electrochemical cells and EMF — Higher classes",
        "Nernst equation — Higher classes"
      ]
    }
  },
  {
    "id": "T07.01",
    "name": "Metallurgy",
    "concepts": [
      {
        "concept_id": "T07.01.C01",
        "concept_name": "Occurrence of metals: ores and minerals",
        "difficulty_levels": ["familiarity", "application", "exam_style"]
      },
      {
        "concept_id": "T07.01.C02",
        "concept_name": "Extraction of metals based on reactivity",
        "difficulty_levels": ["familiarity", "application", "exam_style"]
      },
      {
        "concept_id": "T07.01.C03",
        "concept_name": "Extraction of iron and aluminium",
        "difficulty_levels": ["familiarity", "application", "exam_style"]
      },
      {
        "concept_id": "T07.01.C04",
        "concept_name": "Alloys: composition and properties",
        "difficulty_levels": ["familiarity", "application", "exam_style"]
      },
      {
        "concept_id": "T07.01.C05",
        "concept_name": "Corrosion and its prevention",
        "difficulty_levels": ["familiarity", "application", "exam_style"]
      }
    ],
    "boundaries": {
      "in_scope": [
        "Ore: mineral from which metal can be extracted profitably",
        "Common ores: haematite, bauxite, calamine, galena",
        "Concentration of ore: gravity separation, froth flotation, magnetic",
        "Extraction based on reactivity series",
        "Highly reactive metals: electrolytic reduction (Na, Al)",
        "Medium reactive metals: reduction by carbon (Fe, Zn)",
        "Less reactive metals: roasting/heating (Cu, Hg)",
        "Extraction of iron: blast furnace process",
        "Extraction of aluminium: Hall-Heroult process",
        "Alloys: definition, purpose, types",
        "Important alloys: brass, bronze, steel, stainless steel, duralumin",
        "Corrosion: rusting of iron, conditions required",
        "Prevention: painting, oiling, galvanizing, alloying"
      ],
      "out_of_scope": [
        "Basic metal properties only — Covered in Class 8-9",
        "Thermodynamics of metallurgy — Higher classes",
        "Zone refining and other advanced purification — Higher classes"
      ]
    }
  },
  {
    "id": "T08.01",
    "name": "Study of Compounds: Ammonia",
    "concepts": [
      {
        "concept_id": "T08.01.C01",
        "concept_name": "Laboratory preparation of ammonia",
        "difficulty_levels": ["familiarity", "application", "exam_style"]
      },
      {
        "concept_id": "T08.01.C02",
        "concept_name": "Industrial manufacture: Haber process",
        "difficulty_levels": ["familiarity", "application", "exam_style"]
      },
      {
        "concept_id": "T08.01.C03",
        "concept_name": "Physical and chemical properties of ammonia",
        "difficulty_levels": ["familiarity", "application", "exam_style"]
      },
      {
        "concept_id": "T08.01.C04",
        "concept_name": "Tests and uses of ammonia",
        "difficulty_levels": ["familiarity", "application", "exam_style"]
      }
    ],
    "boundaries": {
      "in_scope": [
        "Lab preparation: ammonium salt + alkali",
        "NH4Cl + NaOH -> NaCl + H2O + NH3",
        "Drying agent: quicklime (CaO)",
        "Collection: downward displacement of air",
        "Haber process: N2 + 3H2 -> 2NH3",
        "Conditions: 450C, 200 atm, iron catalyst",
        "Physical properties: colorless, pungent smell, lighter than air",
        "High solubility in water: fountain experiment",
        "Basic nature: turns red litmus blue",
        "Reaction with acids: formation of ammonium salts",
        "Reaction with chlorine: NH3 + 3Cl2 -> NCl3 + 3HCl",
        "Reducing property: reduces CuO to Cu",
        "Test: turns moist red litmus blue, white fumes with HCl",
        "Uses: fertilizers, refrigerant, explosives, nylon"
      ],
      "out_of_scope": [
        "Basic ammonia concept only — Covered in Class 8-9",
        "Le Chatelier's principle — Higher classes",
        "Industrial process optimization — Higher classes"
      ]
    }
  },
  {
    "id": "T08.02",
    "name": "Study of Compounds: Nitric Acid",
    "concepts": [
      {
        "concept_id": "T08.02.C01",
        "concept_name": "Laboratory preparation of nitric acid",
        "difficulty_levels": ["familiarity", "application", "exam_style"]
      },
      {
        "concept_id": "T08.02.C02",
        "concept_name": "Industrial manufacture: Ostwald process",
        "difficulty_levels": ["familiarity", "application", "exam_style"]
      },
      {
        "concept_id": "T08.02.C03",
        "concept_name": "Physical and chemical properties of nitric acid",
        "difficulty_levels": ["familiarity", "application", "exam_style"]
      },
      {
        "concept_id": "T08.02.C04",
        "concept_name": "Action on metals and uses of nitric acid",
        "difficulty_levels": ["familiarity", "application", "exam_style"]
      }
    ],
    "boundaries": {
      "in_scope": [
        "Lab preparation: nitrate salt + conc. H2SO4",
        "NaNO3 + H2SO4 -> NaHSO4 + HNO3",
        "Distillation below 200C (decomposition above)",
        "Ostwald process: oxidation of ammonia",
        "4NH3 + 5O2 -> 4NO + 6H2O (Pt catalyst, 800C)",
        "2NO + O2 -> 2NO2",
        "4NO2 + O2 + 2H2O -> 4HNO3",
        "Physical properties: colorless liquid, pungent smell",
        "Brown color in sunlight (decomposition to NO2)",
        "Oxidizing nature of HNO3",
        "Action on metals: Cu, Zn, Fe (different concentrations)",
        "Passive metals: Al, Fe with conc. HNO3",
        "Aqua regia: 3HCl + HNO3 (dissolves gold)",
        "Uses: fertilizers, explosives, dyes, drugs"
      ],
      "out_of_scope": [
        "Basic acid properties only — Covered in Class 8-9",
        "Reaction mechanisms — Higher classes",
        "Industrial pollution control — Higher classes"
      ]
    }
  },
  {
    "id": "T08.03",
    "name": "Study of Compounds: Sulphuric Acid",
    "concepts": [
      {
        "concept_id": "T08.03.C01",
        "concept_name": "Industrial manufacture: Contact process",
        "difficulty_levels": ["familiarity", "application", "exam_style"]
      },
      {
        "concept_id": "T08.03.C02",
        "concept_name": "Physical properties of sulphuric acid",
        "difficulty_levels": ["familiarity", "application", "exam_style"]
      },
      {
        "concept_id": "T08.03.C03",
        "concept_name": "Chemical properties: acidic, dehydrating, oxidizing",
        "difficulty_levels": ["familiarity", "application", "exam_style"]
      },
      {
        "concept_id": "T08.03.C04",
        "concept_name": "Tests and uses of sulphuric acid",
        "difficulty_levels": ["familiarity", "application", "exam_style"]
      }
    ],
    "boundaries": {
      "in_scope": [
        "Contact process: S -> SO2 -> SO3 -> H2SO4",
        "S + O2 -> SO2 (burning sulphur or roasting pyrites)",
        "2SO2 + O2 -> 2SO3 (V2O5 catalyst, 450C)",
        "SO3 + H2SO4 -> H2S2O7 (oleum)",
        "H2S2O7 + H2O -> 2H2SO4",
        "Physical properties: colorless, oily, dense liquid",
        "High boiling point (338C), miscible with water",
        "Dilution: acid to water (never water to acid)",
        "Acidic properties: reaction with bases, carbonates",
        "Dehydrating property: action on sugar, CuSO4.5H2O",
        "Oxidizing property: oxidizes metals and non-metals",
        "Action on metals: Zn, Cu, Fe",
        "Test: BaCl2 gives white precipitate (BaSO4)",
        "Uses: fertilizers, detergents, paints, batteries"
      ],
      "out_of_scope": [
        "Basic acid properties only — Covered in Class 8-9",
        "Chamber process (obsolete) — Not required",
        "Industrial effluent treatment — Higher classes"
      ]
    }
  },
  {
    "id": "T09.01",
    "name": "Organic Chemistry: Introduction",
    "concepts": [
      {
        "concept_id": "T09.01.C01",
        "concept_name": "Organic compounds and their characteristics",
        "difficulty_levels": ["familiarity", "application", "exam_style"]
      },
      {
        "concept_id": "T09.01.C02",
        "concept_name": "Catenation and tetravalency of carbon",
        "difficulty_levels": ["familiarity", "application", "exam_style"]
      },
      {
        "concept_id": "T09.01.C03",
        "concept_name": "Homologous series and functional groups",
        "difficulty_levels": ["familiarity", "application", "exam_style"]
      },
      {
        "concept_id": "T09.01.C04",
        "concept_name": "IUPAC nomenclature basics",
        "difficulty_levels": ["familiarity", "application", "exam_style"]
      },
      {
        "concept_id": "T09.01.C05",
        "concept_name": "Isomerism: structural isomers",
        "difficulty_levels": ["familiarity", "application", "exam_style"]
      }
    ],
    "boundaries": {
      "in_scope": [
        "Organic chemistry: study of carbon compounds",
        "Vital force theory and its refutation (Wohler)",
        "Characteristics: covalent bonding, low melting points",
        "Catenation: ability of carbon to form chains",
        "Tetravalency: carbon forms 4 bonds",
        "Types of carbon chains: straight, branched, cyclic",
        "Homologous series: family of compounds with same functional group",
        "General formula for homologous series",
        "Functional groups: -OH, -CHO, -COOH, -CO-, -X",
        "IUPAC naming: prefix-root-suffix",
        "Naming alkanes, alkenes, alkynes",
        "Structural isomerism: chain, position, functional group"
      ],
      "out_of_scope": [
        "Basic carbon chemistry only — Covered in Class 8-9",
        "Stereoisomerism — Higher classes",
        "Complex IUPAC naming — Higher classes",
        "Reaction mechanisms — Higher classes"
      ]
    }
  },
  {
    "id": "T09.02",
    "name": "Organic Chemistry: Hydrocarbons",
    "concepts": [
      {
        "concept_id": "T09.02.C01",
        "concept_name": "Alkanes: properties and reactions",
        "difficulty_levels": ["familiarity", "application", "exam_style"]
      },
      {
        "concept_id": "T09.02.C02",
        "concept_name": "Alkenes: properties and reactions",
        "difficulty_levels": ["familiarity", "application", "exam_style"]
      },
      {
        "concept_id": "T09.02.C03",
        "concept_name": "Alkynes: properties and reactions",
        "difficulty_levels": ["familiarity", "application", "exam_style"]
      },
      {
        "concept_id": "T09.02.C04",
        "concept_name": "Preparation of methane and ethene",
        "difficulty_levels": ["familiarity", "application", "exam_style"]
      },
      {
        "concept_id": "T09.02.C05",
        "concept_name": "Uses of hydrocarbons",
        "difficulty_levels": ["familiarity", "application", "exam_style"]
      }
    ],
    "boundaries": {
      "in_scope": [
        "Alkanes: CnH2n+2, saturated, single bonds",
        "Methane, ethane, propane, butane",
        "Properties: combustion, substitution reactions",
        "Chlorination of methane",
        "Alkenes: CnH2n, unsaturated, double bond",
        "Ethene (ethylene): structure and properties",
        "Addition reactions: hydrogenation, halogenation",
        "Polymerization of ethene: polythene",
        "Alkynes: CnH2n-2, unsaturated, triple bond",
        "Ethyne (acetylene): structure and properties",
        "Preparation: CaC2 + H2O -> C2H2 + Ca(OH)2",
        "Lab preparation of methane: CH3COONa + NaOH",
        "Lab preparation of ethene: dehydration of ethanol",
        "Uses: fuels, plastics, solvents, raw materials"
      ],
      "out_of_scope": [
        "Basic hydrocarbon concepts only — Covered in Class 8-9",
        "Aromatic hydrocarbons — Higher classes",
        "Detailed reaction mechanisms — Higher classes",
        "Petroleum refining details — Higher classes"
      ]
    }
  },
  {
    "id": "T09.03",
    "name": "Organic Chemistry: Alcohols and Carboxylic Acids",
    "concepts": [
      {
        "concept_id": "T09.03.C01",
        "concept_name": "Alcohols: structure and properties",
        "difficulty_levels": ["familiarity", "application", "exam_style"]
      },
      {
        "concept_id": "T09.03.C02",
        "concept_name": "Ethanol: preparation and reactions",
        "difficulty_levels": ["familiarity", "application", "exam_style"]
      },
      {
        "concept_id": "T09.03.C03",
        "concept_name": "Carboxylic acids: structure and properties",
        "difficulty_levels": ["familiarity", "application", "exam_style"]
      },
      {
        "concept_id": "T09.03.C04",
        "concept_name": "Ethanoic acid: properties and reactions",
        "difficulty_levels": ["familiarity", "application", "exam_style"]
      },
      {
        "concept_id": "T09.03.C05",
        "concept_name": "Esterification and saponification",
        "difficulty_levels": ["familiarity", "application", "exam_style"]
      }
    ],
    "boundaries": {
      "in_scope": [
        "Alcohols: -OH functional group",
        "Classification: primary, secondary, tertiary",
        "Ethanol: C2H5OH, structure, hydrogen bonding",
        "Preparation: fermentation of sugars",
        "Industrial preparation: hydration of ethene",
        "Properties: combustion, reaction with Na, dehydration",
        "Oxidation of ethanol to ethanoic acid",
        "Carboxylic acids: -COOH functional group",
        "Ethanoic acid (acetic acid): CH3COOH",
        "Properties: weak acid, reaction with bases, carbonates",
        "Esterification: alcohol + acid -> ester + water",
        "Esters: fruity smell, uses",
        "Saponification: ester + alkali -> alcohol + soap",
        "Soap making: saponification of fats"
      ],
      "out_of_scope": [
        "Basic functional group concepts only — Covered in Class 8-9",
        "Aldehydes and ketones — Higher classes",
        "Amines and amides — Higher classes",
        "Biomolecules — Higher classes"
      ]
    }
  },
  {
    "id": "T10.01",
    "name": "Practical Chemistry and Laboratory Techniques",
    "concepts": [
      {
        "concept_id": "T10.01.C01",
        "concept_name": "Laboratory safety and apparatus",
        "difficulty_levels": ["familiarity", "application"]
      },
      {
        "concept_id": "T10.01.C02",
        "concept_name": "Preparation and collection of gases",
        "difficulty_levels": ["familiarity", "application", "exam_style"]
      },
      {
        "concept_id": "T10.01.C03",
        "concept_name": "Acid-base titrations",
        "difficulty_levels": ["familiarity", "application", "exam_style"]
      },
      {
        "concept_id": "T10.01.C04",
        "concept_name": "Salt analysis procedures",
        "difficulty_levels": ["familiarity", "application", "exam_style"]
      },
      {
        "concept_id": "T10.01.C05",
        "concept_name": "Tests for gases and functional groups",
        "difficulty_levels": ["familiarity", "application", "exam_style"]
      }
    ],
    "boundaries": {
      "in_scope": [
        "Laboratory safety: handling acids, heating, gas collection",
        "Common apparatus: burette, pipette, conical flask, Bunsen burner",
        "Gas preparation: H2, O2, CO2, Cl2, HCl, NH3, SO2",
        "Gas collection methods: water displacement, air displacement",
        "Drying agents for different gases",
        "Titration: end point, indicator selection",
        "Acid-base titration procedure",
        "Calculation of concentration",
        "Systematic salt analysis procedure",
        "Recording observations in table format",
        "Tests for gases: H2 (pop test), O2 (glowing splint)",
        "Tests for CO2 (lime water), Cl2 (bleaching)",
        "Tests for functional groups in organic compounds"
      ],
      "out_of_scope": [
        "Basic lab skills only — Covered in Class 8-9",
        "Advanced volumetric analysis — Higher classes",
        "Gravimetric analysis — Higher classes",
        "Instrumental techniques — Higher classes"
      ]
    }
  }
]
