[
  {
    "id": "T01.01",
    "name": "Force: Turning Effect and Equilibrium",
    "concepts": [
      {
        "concept_id": "T01.01.C01",
        "concept_name": "Moment of force (torque) and its calculation",
        "difficulty_levels": ["familiarity", "application", "exam_style"]
      },
      {
        "concept_id": "T01.01.C02",
        "concept_name": "Couple and its moment",
        "difficulty_levels": ["familiarity", "application", "exam_style"]
      },
      {
        "concept_id": "T01.01.C03",
        "concept_name": "Principle of moments and equilibrium",
        "difficulty_levels": ["familiarity", "application", "exam_style"]
      },
      {
        "concept_id": "T01.01.C04",
        "concept_name": "Centre of gravity and stability",
        "difficulty_levels": ["familiarity", "application", "exam_style"]
      },
      {
        "concept_id": "T01.01.C05",
        "concept_name": "Uniform and non-uniform bodies",
        "difficulty_levels": ["familiarity", "application", "exam_style"]
      }
    ],
    "boundaries": {
      "in_scope": [
        "Moment of force = Force x Perpendicular distance from pivot",
        "SI unit of moment: Newton-meter (Nm)",
        "Clockwise and anticlockwise moments",
        "Couple: two equal and opposite parallel forces",
        "Moment of couple = Force x Perpendicular distance between forces",
        "Principle of moments: sum of clockwise moments = sum of anticlockwise moments",
        "Conditions for equilibrium: net force = 0, net moment = 0",
        "Centre of gravity: point where entire weight acts",
        "Determining CG of regular and irregular laminae",
        "Stability: stable, unstable, and neutral equilibrium",
        "Factors affecting stability: position of CG, base area"
      ],
      "out_of_scope": [
        "Basic moment concept only — Covered in Class 8",
        "Rotational dynamics and angular momentum — Higher studies"
      ]
    }
  },
  {
    "id": "T02.01",
    "name": "Work, Energy and Power",
    "concepts": [
      {
        "concept_id": "T02.01.C01",
        "concept_name": "Work done by a force",
        "difficulty_levels": ["familiarity", "application", "exam_style"]
      },
      {
        "concept_id": "T02.01.C02",
        "concept_name": "Kinetic energy and its formula",
        "difficulty_levels": ["familiarity", "application", "exam_style"]
      },
      {
        "concept_id": "T02.01.C03",
        "concept_name": "Potential energy: gravitational and elastic",
        "difficulty_levels": ["familiarity", "application", "exam_style"]
      },
      {
        "concept_id": "T02.01.C04",
        "concept_name": "Work-energy theorem",
        "difficulty_levels": ["familiarity", "application", "exam_style"]
      },
      {
        "concept_id": "T02.01.C05",
        "concept_name": "Conservation of mechanical energy",
        "difficulty_levels": ["familiarity", "application", "exam_style"]
      },
      {
        "concept_id": "T02.01.C06",
        "concept_name": "Power and efficiency",
        "difficulty_levels": ["familiarity", "application", "exam_style"]
      }
    ],
    "boundaries": {
      "in_scope": [
        "Work = Force x Displacement x cos(angle)",
        "Positive, negative, and zero work",
        "SI unit of work: Joule (J)",
        "Kinetic energy KE = (1/2)mv^2",
        "Gravitational potential energy PE = mgh",
        "Elastic potential energy in springs",
        "Work-energy theorem: Work done = Change in KE",
        "Conservation of mechanical energy in ideal systems",
        "Energy transformations and losses",
        "Power = Work/Time = Force x Velocity",
        "SI unit of power: Watt (W)",
        "Efficiency = (Useful output / Total input) x 100%",
        "Numerical problems involving energy and power calculations"
      ],
      "out_of_scope": [
        "Basic energy concepts — Covered in Class 8",
        "Non-conservative forces in detail — Higher studies"
      ]
    }
  },
  {
    "id": "T03.01",
    "name": "Simple Machines",
    "concepts": [
      {
        "concept_id": "T03.01.C01",
        "concept_name": "Machines and mechanical advantage",
        "difficulty_levels": ["familiarity", "application", "exam_style"]
      },
      {
        "concept_id": "T03.01.C02",
        "concept_name": "Velocity ratio",
        "difficulty_levels": ["familiarity", "application", "exam_style"]
      },
      {
        "concept_id": "T03.01.C03",
        "concept_name": "Efficiency of machines",
        "difficulty_levels": ["familiarity", "application", "exam_style"]
      },
      {
        "concept_id": "T03.01.C04",
        "concept_name": "Levers: types and applications",
        "difficulty_levels": ["familiarity", "application", "exam_style"]
      },
      {
        "concept_id": "T03.01.C05",
        "concept_name": "Pulleys: single fixed, single movable, and combinations",
        "difficulty_levels": ["familiarity", "application", "exam_style"]
      },
      {
        "concept_id": "T03.01.C06",
        "concept_name": "Inclined plane and screw",
        "difficulty_levels": ["familiarity", "application", "exam_style"]
      }
    ],
    "boundaries": {
      "in_scope": [
        "Simple machines: devices that multiply force or change direction",
        "Mechanical Advantage (MA) = Load / Effort",
        "Velocity Ratio (VR) = Distance moved by effort / Distance moved by load",
        "Efficiency = (MA / VR) x 100%",
        "Ideal machine: MA = VR, efficiency = 100%",
        "Levers: first, second, and third class",
        "Examples of each lever class",
        "Single fixed pulley: VR = 1, changes direction",
        "Single movable pulley: VR = 2, multiplies force",
        "Block and tackle system",
        "Inclined plane: VR = Length / Height",
        "Screw: VR = 2(pi)R / Pitch",
        "Practical applications of simple machines"
      ],
      "out_of_scope": [
        "Basic lever concepts — Covered in Class 8",
        "Wheel and axle, gears — Not in ICSE 10 syllabus"
      ]
    }
  },
  {
    "id": "T04.01",
    "name": "Light: Refraction at Plane Surfaces",
    "concepts": [
      {
        "concept_id": "T04.01.C01",
        "concept_name": "Laws of refraction and Snell's law",
        "difficulty_levels": ["familiarity", "application", "exam_style"]
      },
      {
        "concept_id": "T04.01.C02",
        "concept_name": "Refractive index: absolute and relative",
        "difficulty_levels": ["familiarity", "application", "exam_style"]
      },
      {
        "concept_id": "T04.01.C03",
        "concept_name": "Critical angle and total internal reflection",
        "difficulty_levels": ["familiarity", "application", "exam_style"]
      },
      {
        "concept_id": "T04.01.C04",
        "concept_name": "Refraction through glass slab",
        "difficulty_levels": ["familiarity", "application", "exam_style"]
      },
      {
        "concept_id": "T04.01.C05",
        "concept_name": "Refraction through prism and dispersion",
        "difficulty_levels": ["familiarity", "application", "exam_style"]
      }
    ],
    "boundaries": {
      "in_scope": [
        "Laws of refraction: incident ray, refracted ray, normal in same plane",
        "Snell's law: n1 sin(i) = n2 sin(r)",
        "Refractive index = speed in vacuum / speed in medium",
        "Absolute refractive index (w.r.t. vacuum)",
        "Relative refractive index between two media",
        "Critical angle: angle of incidence for which angle of refraction = 90 degrees",
        "Condition for TIR: denser to rarer medium, angle > critical angle",
        "Applications: optical fibers, mirages, diamonds",
        "Lateral displacement through glass slab",
        "Prism: angle of deviation, minimum deviation",
        "Dispersion: splitting of white light into spectrum",
        "VIBGYOR and cause of dispersion"
      ],
      "out_of_scope": [
        "Basic refraction concepts — Covered in Class 8",
        "Derivation of prism formula — Higher studies"
      ]
    }
  },
  {
    "id": "T04.02",
    "name": "Light: Refraction Through Lenses",
    "concepts": [
      {
        "concept_id": "T04.02.C01",
        "concept_name": "Types of lenses and terminology",
        "difficulty_levels": ["familiarity", "application", "exam_style"]
      },
      {
        "concept_id": "T04.02.C02",
        "concept_name": "Image formation by convex lens",
        "difficulty_levels": ["familiarity", "application", "exam_style"]
      },
      {
        "concept_id": "T04.02.C03",
        "concept_name": "Image formation by concave lens",
        "difficulty_levels": ["familiarity", "application", "exam_style"]
      },
      {
        "concept_id": "T04.02.C04",
        "concept_name": "Lens formula and magnification",
        "difficulty_levels": ["familiarity", "application", "exam_style"]
      },
      {
        "concept_id": "T04.02.C05",
        "concept_name": "Power of a lens",
        "difficulty_levels": ["familiarity", "application", "exam_style"]
      }
    ],
    "boundaries": {
      "in_scope": [
        "Convex (converging) and concave (diverging) lenses",
        "Terms: optical centre, principal axis, principal focus, focal length",
        "Ray diagrams for convex lens at different object positions",
        "Ray diagrams for concave lens",
        "Nature, position, and size of images",
        "Lens formula: 1/f = 1/v - 1/u",
        "Sign convention for lenses",
        "Magnification m = v/u = h'/h",
        "Power of lens P = 1/f (in metres)",
        "SI unit of power: Dioptre (D)",
        "Combination of thin lenses in contact: P = P1 + P2"
      ],
      "out_of_scope": [
        "Spherical mirrors — Covered in Class 8",
        "Thick lenses and lens aberrations — Higher studies"
      ]
    }
  },
  {
    "id": "T04.03",
    "name": "Defects of Vision and Their Correction",
    "concepts": [
      {
        "concept_id": "T04.03.C01",
        "concept_name": "Human eye: structure and function",
        "difficulty_levels": ["familiarity", "application", "exam_style"]
      },
      {
        "concept_id": "T04.03.C02",
        "concept_name": "Near point, far point, and accommodation",
        "difficulty_levels": ["familiarity", "application", "exam_style"]
      },
      {
        "concept_id": "T04.03.C03",
        "concept_name": "Myopia (short-sightedness)",
        "difficulty_levels": ["familiarity", "application", "exam_style"]
      },
      {
        "concept_id": "T04.03.C04",
        "concept_name": "Hypermetropia (long-sightedness)",
        "difficulty_levels": ["familiarity", "application", "exam_style"]
      },
      {
        "concept_id": "T04.03.C05",
        "concept_name": "Presbyopia and astigmatism",
        "difficulty_levels": ["familiarity", "application", "exam_style"]
      }
    ],
    "boundaries": {
      "in_scope": [
        "Structure of eye: cornea, iris, pupil, lens, retina",
        "Eye as a natural lens system",
        "Near point (least distance of distinct vision): 25 cm",
        "Far point: farthest point of clear vision (infinity for normal eye)",
        "Accommodation: ability to change focal length of eye lens",
        "Myopia: image forms in front of retina",
        "Cause: elongated eyeball or increased lens power",
        "Correction: concave (diverging) lens",
        "Hypermetropia: image forms behind retina",
        "Cause: shortened eyeball or decreased lens power",
        "Correction: convex (converging) lens",
        "Presbyopia: loss of accommodation with age",
        "Correction: bifocal lenses",
        "Numerical problems on corrective lenses"
      ],
      "out_of_scope": [
        "Detailed eye anatomy — Biology syllabus",
        "LASIK surgery and advanced corrections — Higher studies"
      ]
    }
  },
  {
    "id": "T05.01",
    "name": "Sound: Nature and Propagation",
    "concepts": [
      {
        "concept_id": "T05.01.C01",
        "concept_name": "Nature of sound waves",
        "difficulty_levels": ["familiarity", "application", "exam_style"]
      },
      {
        "concept_id": "T05.01.C02",
        "concept_name": "Wave parameters: frequency, wavelength, amplitude, velocity",
        "difficulty_levels": ["familiarity", "application", "exam_style"]
      },
      {
        "concept_id": "T05.01.C03",
        "concept_name": "Characteristics of sound: loudness, pitch, quality",
        "difficulty_levels": ["familiarity", "application", "exam_style"]
      },
      {
        "concept_id": "T05.01.C04",
        "concept_name": "Reflection of sound and echo",
        "difficulty_levels": ["familiarity", "application", "exam_style"]
      },
      {
        "concept_id": "T05.01.C05",
        "concept_name": "Ultrasound and its applications",
        "difficulty_levels": ["familiarity", "application", "exam_style"]
      }
    ],
    "boundaries": {
      "in_scope": [
        "Sound as longitudinal mechanical wave",
        "Compression and rarefaction",
        "Sound requires medium for propagation",
        "Frequency (f): number of vibrations per second, SI unit: Hz",
        "Wavelength (lambda): distance between consecutive compressions",
        "Amplitude: maximum displacement from mean position",
        "Velocity of sound: v = f x lambda",
        "Speed of sound in different media: solid > liquid > gas",
        "Loudness: depends on amplitude, measured in decibels (dB)",
        "Pitch: depends on frequency",
        "Quality (timbre): distinguishes sounds of same pitch and loudness",
        "Reflection of sound: laws similar to light",
        "Echo: reflected sound heard distinctly",
        "Minimum distance for echo: 17.2 m (at 20C)",
        "Reverberation and its control",
        "Ultrasound: frequency > 20 kHz",
        "Applications: SONAR, medical imaging, cleaning"
      ],
      "out_of_scope": [
        "Basic sound concepts — Covered in Class 8",
        "Doppler effect — Higher studies"
      ]
    }
  },
  {
    "id": "T06.01",
    "name": "Current Electricity: Basic Concepts",
    "concepts": [
      {
        "concept_id": "T06.01.C01",
        "concept_name": "Electric current and charge flow",
        "difficulty_levels": ["familiarity", "application", "exam_style"]
      },
      {
        "concept_id": "T06.01.C02",
        "concept_name": "Potential difference and EMF",
        "difficulty_levels": ["familiarity", "application", "exam_style"]
      },
      {
        "concept_id": "T06.01.C03",
        "concept_name": "Resistance and Ohm's law",
        "difficulty_levels": ["familiarity", "application", "exam_style"]
      },
      {
        "concept_id": "T06.01.C04",
        "concept_name": "Factors affecting resistance",
        "difficulty_levels": ["familiarity", "application", "exam_style"]
      },
      {
        "concept_id": "T06.01.C05",
        "concept_name": "Resistivity and conductivity",
        "difficulty_levels": ["familiarity", "application", "exam_style"]
      }
    ],
    "boundaries": {
      "in_scope": [
        "Electric current: rate of flow of charge, I = Q/t",
        "SI unit of current: Ampere (A)",
        "Direction of current: conventional vs electron flow",
        "Potential difference: work done per unit charge, V = W/Q",
        "SI unit of potential difference: Volt (V)",
        "EMF: energy supplied per unit charge by source",
        "Difference between EMF and terminal potential difference",
        "Ohm's law: V = IR (at constant temperature)",
        "Resistance: opposition to current flow",
        "SI unit of resistance: Ohm",
        "I-V characteristics and ohmic/non-ohmic conductors",
        "Factors affecting resistance: length, area, material, temperature",
        "R = rho x L / A",
        "Resistivity (rho): material property, SI unit: Ohm-m",
        "Conductivity = 1/resistivity"
      ],
      "out_of_scope": [
        "Basic circuit concepts — Covered in Class 8",
        "Kirchhoff's laws — Higher studies"
      ]
    }
  },
  {
    "id": "T06.02",
    "name": "Current Electricity: Resistance Combinations",
    "concepts": [
      {
        "concept_id": "T06.02.C01",
        "concept_name": "Resistors in series",
        "difficulty_levels": ["familiarity", "application", "exam_style"]
      },
      {
        "concept_id": "T06.02.C02",
        "concept_name": "Resistors in parallel",
        "difficulty_levels": ["familiarity", "application", "exam_style"]
      },
      {
        "concept_id": "T06.02.C03",
        "concept_name": "Mixed combinations of resistors",
        "difficulty_levels": ["familiarity", "application", "exam_style"]
      },
      {
        "concept_id": "T06.02.C04",
        "concept_name": "Internal resistance of a cell",
        "difficulty_levels": ["familiarity", "application", "exam_style"]
      }
    ],
    "boundaries": {
      "in_scope": [
        "Series combination: same current through all resistors",
        "Rs = R1 + R2 + R3 + ...",
        "Voltage divides in series circuit",
        "Parallel combination: same voltage across all resistors",
        "1/Rp = 1/R1 + 1/R2 + 1/R3 + ...",
        "Current divides in parallel circuit",
        "Equivalent resistance of mixed combinations",
        "Internal resistance of cell: r",
        "EMF = V + Ir (E = terminal voltage + voltage drop across internal resistance)",
        "Terminal voltage decreases with current",
        "Numerical problems on circuit analysis"
      ],
      "out_of_scope": [
        "Complex network analysis — Higher studies",
        "Wheatstone bridge derivation — Higher studies"
      ]
    }
  },
  {
    "id": "T07.01",
    "name": "Electrical Power and Energy",
    "concepts": [
      {
        "concept_id": "T07.01.C01",
        "concept_name": "Electrical energy and work",
        "difficulty_levels": ["familiarity", "application", "exam_style"]
      },
      {
        "concept_id": "T07.01.C02",
        "concept_name": "Electrical power formulas",
        "difficulty_levels": ["familiarity", "application", "exam_style"]
      },
      {
        "concept_id": "T07.01.C03",
        "concept_name": "Commercial units of energy",
        "difficulty_levels": ["familiarity", "application", "exam_style"]
      },
      {
        "concept_id": "T07.01.C04",
        "concept_name": "Household circuits and safety",
        "difficulty_levels": ["familiarity", "application", "exam_style"]
      }
    ],
    "boundaries": {
      "in_scope": [
        "Electrical energy = VIt = I^2Rt = V^2t/R",
        "SI unit of electrical energy: Joule (J)",
        "Electrical power = VI = I^2R = V^2/R",
        "SI unit of power: Watt (W)",
        "Commercial unit: kilowatt-hour (kWh)",
        "1 kWh = 3.6 x 10^6 J",
        "Calculating electricity bills",
        "Power rating of appliances",
        "Heating effect of current: Joule's law",
        "H = I^2Rt",
        "Applications: electric heater, fuse, electric iron",
        "Household wiring: live, neutral, earth",
        "Fuses and MCBs",
        "Earthing and safety",
        "Numerical problems on electrical energy and power"
      ],
      "out_of_scope": [
        "Basic household electricity — Covered in Class 8",
        "Three-phase power — Higher studies"
      ]
    }
  },
  {
    "id": "T08.01",
    "name": "Electromagnetism",
    "concepts": [
      {
        "concept_id": "T08.01.C01",
        "concept_name": "Magnetic effect of electric current",
        "difficulty_levels": ["familiarity", "application", "exam_style"]
      },
      {
        "concept_id": "T08.01.C02",
        "concept_name": "Electromagnets and their applications",
        "difficulty_levels": ["familiarity", "application", "exam_style"]
      },
      {
        "concept_id": "T08.01.C03",
        "concept_name": "Force on current-carrying conductor in magnetic field",
        "difficulty_levels": ["familiarity", "application", "exam_style"]
      },
      {
        "concept_id": "T08.01.C04",
        "concept_name": "DC motor: principle and working",
        "difficulty_levels": ["familiarity", "application", "exam_style"]
      },
      {
        "concept_id": "T08.01.C05",
        "concept_name": "Electromagnetic induction and AC generator",
        "difficulty_levels": ["familiarity", "application", "exam_style"]
      },
      {
        "concept_id": "T08.01.C06",
        "concept_name": "Transformers: principle and applications",
        "difficulty_levels": ["familiarity", "application", "exam_style"]
      }
    ],
    "boundaries": {
      "in_scope": [
        "Magnetic field due to current-carrying conductor",
        "Right-hand thumb rule and Maxwell's corkscrew rule",
        "Magnetic field patterns: straight wire, circular loop, solenoid",
        "Electromagnets: temporary magnets using current",
        "Applications: electric bell, relay, crane",
        "Force on current-carrying conductor: F = BIL",
        "Fleming's left-hand rule",
        "DC motor: construction and working",
        "Role of split ring commutator",
        "Electromagnetic induction: Faraday's experiments",
        "Induced EMF and current",
        "Fleming's right-hand rule",
        "AC generator: construction and working",
        "Role of slip rings",
        "AC vs DC",
        "Transformers: step-up and step-down",
        "Transformer equation: Vs/Vp = Ns/Np = Ip/Is",
        "Power transmission and transformer efficiency"
      ],
      "out_of_scope": [
        "Basic electromagnet concept — Covered in Class 8",
        "Lenz's law derivation — Higher studies",
        "Self and mutual inductance — Higher studies"
      ]
    }
  },
  {
    "id": "T09.01",
    "name": "Calorimetry",
    "concepts": [
      {
        "concept_id": "T09.01.C01",
        "concept_name": "Heat capacity and specific heat capacity",
        "difficulty_levels": ["familiarity", "application", "exam_style"]
      },
      {
        "concept_id": "T09.01.C02",
        "concept_name": "Principle of calorimetry",
        "difficulty_levels": ["familiarity", "application", "exam_style"]
      },
      {
        "concept_id": "T09.01.C03",
        "concept_name": "Latent heat of fusion",
        "difficulty_levels": ["familiarity", "application", "exam_style"]
      },
      {
        "concept_id": "T09.01.C04",
        "concept_name": "Latent heat of vaporization",
        "difficulty_levels": ["familiarity", "application", "exam_style"]
      },
      {
        "concept_id": "T09.01.C05",
        "concept_name": "Numerical problems on calorimetry",
        "difficulty_levels": ["familiarity", "application", "exam_style"]
      }
    ],
    "boundaries": {
      "in_scope": [
        "Heat: energy transferred due to temperature difference",
        "Heat capacity: Q = C x delta_T",
        "Specific heat capacity: Q = mc x delta_T",
        "SI unit of specific heat: J/(kg.K) or J/(kg.C)",
        "Specific heat of water: 4200 J/(kg.K)",
        "Principle of calorimetry: heat lost = heat gained",
        "Method of mixtures",
        "Latent heat: heat absorbed/released during change of state",
        "Latent heat of fusion of ice: 336 kJ/kg",
        "Latent heat of vaporization of water: 2260 kJ/kg",
        "Q = mL (heat for change of state)",
        "Heating and cooling curves",
        "Numerical problems involving specific heat and latent heat"
      ],
      "out_of_scope": [
        "Basic heat concepts — Covered in Class 8",
        "Entropy and thermodynamics — Higher studies"
      ]
    }
  },
  {
    "id": "T10.01",
    "name": "Radioactivity and Nuclear Energy",
    "concepts": [
      {
        "concept_id": "T10.01.C01",
        "concept_name": "Structure of atom and nucleus",
        "difficulty_levels": ["familiarity", "application", "exam_style"]
      },
      {
        "concept_id": "T10.01.C02",
        "concept_name": "Radioactivity and radioactive decay",
        "difficulty_levels": ["familiarity", "application", "exam_style"]
      },
      {
        "concept_id": "T10.01.C03",
        "concept_name": "Types of radioactive emissions: alpha, beta, gamma",
        "difficulty_levels": ["familiarity", "application", "exam_style"]
      },
      {
        "concept_id": "T10.01.C04",
        "concept_name": "Nuclear fission and fusion",
        "difficulty_levels": ["familiarity", "application", "exam_style"]
      },
      {
        "concept_id": "T10.01.C05",
        "concept_name": "Nuclear energy: applications and hazards",
        "difficulty_levels": ["familiarity", "application", "exam_style"]
      }
    ],
    "boundaries": {
      "in_scope": [
        "Atomic structure: protons, neutrons, electrons",
        "Nucleus: contains protons and neutrons",
        "Atomic number (Z), mass number (A)",
        "Isotopes: same Z, different A",
        "Radioactivity: spontaneous emission from unstable nuclei",
        "Alpha particles: helium nuclei, positive charge, least penetrating",
        "Beta particles: electrons, negative charge, moderate penetration",
        "Gamma rays: electromagnetic radiation, no charge, most penetrating",
        "Half-life: time for half the nuclei to decay",
        "Nuclear fission: heavy nucleus splits into lighter nuclei",
        "Chain reaction and critical mass",
        "Nuclear fusion: light nuclei combine to form heavier nucleus",
        "Source of solar energy",
        "Nuclear reactor: controlled fission",
        "Nuclear power generation",
        "Applications: medicine, carbon dating, power",
        "Hazards: radiation effects, nuclear waste"
      ],
      "out_of_scope": [
        "Detailed nuclear physics — Higher studies",
        "Binding energy calculations — Higher studies"
      ]
    }
  }
]
